 &FCI NORB=  10,NELEC=10,MS2=0,
  ORBSYM=1,1,1,1,1,1,1,1,1,1,
  ISYM=1,
 &END
 0.5102838990683259    1    1    1    1
 -0.0001529740122435105    2    1    1    1
 0.3051185837679545    2    1    2    1
 0.4981307360891817    2    2    1    1
 -0.000213535289386654    2    2    2    1
 0.4883228573742437    2    2    2    2
 -0.005451241673869505    3    1    1    1
 0.002951805961542615    3    1    2    1
 -0.004562352196559043    3    1    2    2
 0.0126225289501764    3    1    3    1
 0.0004530100763302787    3    2    1    1
 -8.567580098269831e-05    3    2    2    1
 0.0001128786892545918    3    2    2    2
 -5.654796876112712e-05    3    2    3    1
 0.01192132985127842    3    2    3    2
 0.4298778291577927    3    3    1    1
 -0.0001274827089077868    3    3    2    1
 0.4206055124531851    3    3    2    2
 -0.004530329735641371    3    3    3    1
 9.443711390207389e-05    3    3    3    2
 0.4093065356088403    3    3    3    3
 -0.0001507464346137115    4    1    1    1
 0.004934315356095805    4    1    2    1
 6.494313250618887e-05    4    1    2    2
 0.0001868818028574562    4    1    3    1
 -0.01006694509423212    4    1    3    2
 -0.0008050969258357986    4    1    3    3
 0.01035879761083721    4    1    4    1
 -0.003903092362284125    4    2    1    1
 0.001582999002376477    4    2    2    1
 -0.005082823314748267    4    2    2    2
 -0.01000678313522227    4    2    3    1
 0.0002001325040985054    4    2    3    2
 -0.003799471541299992    4    2    3    3
 -0.0001086545643087757    4    2    4    1
 0.009783719490115304    4    2    4    2
 0.000876415313545684    4    3    1    1
 -0.223400330166799    4    3    2    1
 0.000727992096439469    4    3    2    2
 -0.002234623660271454    4    3    3    1
 -5.30995849794099e-05    4    3    3    2
 0.001020467753811785    4    3    3    3
 -0.004291800287261225    4    3    4    1
 -0.001247348920198294    4    3    4    2
 0.1995246322451556    4    3    4    3
 0.4138621127344657    4    4    1    1
 3.270839390071847e-05    4    4    2    1
 0.4054232353910286    4    4    2    2
 -0.004129031461596972    4    4    3    1
 -0.0001836155341980445    4    4    3    2
 0.3896596958750991    4    4    3    3
 -0.0001356403826083669    4    4    4    1
 -0.003878289608533865    4    4    4    2
 0.000981518690373362    4    4    4    3
 0.3760391563162712    4    4    4    4
 -0.001818613857941026    5    1    1    1
 -0.009196115247675298    5    1    2    1
 -0.001981318427372818    5    1    2    2
 0.001591296628271188    5    1    3    1
 0.004074981132462025    5    1    3    2
 -0.0009324362552830758    5    1    3    3
 -0.00245156185031958    5    1    4    1
 -0.001408061992179005    5    1    4    2
 0.006336858776462068    5    1    4    3
 -0.001140117070240597    5    1    4    4
 0.01325165067639708    5    1    5    1
 0.0001084526384198355    5    2    1    1
 -0.003090589991410472    5    2    2    1
 0.001240722032282987    5    2    2    2
 0.004366900030624407    5    2    3    1
 0.001439189478947756    5    2    3    2
 0.001797656679092561    5    2    3    3
 -0.001407197305694302    5    2    4    1
 -0.002512819654232439    5    2    4    2
 0.00198567851880131    5    2    4    3
 0.002109021551338763    5    2    4    4
 0.0006838894421941584    5    2    5    1
 0.01238408256587096    5    2    5    2
 0.005870299550853835    5    3    1    1
 0.03083277257235758    5    3    2    1
 0.005797643044927829    5    3    2    2
 -7.888771283363814e-05    5    3    3    1
 -0.0003817693629500817    5    3    3    2
 0.007701025319445496    5    3    3    3
 0.00222099844275239    5    3    4    1
 -0.000135921394740693    5    3    4    2
 -0.02948409323721103    5    3    4    3
 0.00732831201088654    5    3    4    4
 -0.001693851418404053    5    3    5    1
 -0.0005979308509251825    5    3    5    2
 0.01815402408345651    5    3    5    3
 0.008207191337902268    5    4    1    1
 -0.003861702461320398    5    4    2    1
 0.008306744903638724    5    4    2    2
 0.0001305066158961068    5    4    3    1
 0.000725851903247264    5    4    3    2
 -0.001006277646292527    5    4    3    3
 -0.0001225190884075707    5    4    4    1
 -0.0007230257521453951    5    4    4    2
 0.005414895289325487    5    4    4    3
 0.002843198952242834    5    4    4    4
 0.0004064471006282316    5    4    5    1
 0.0004737812944842832    5    4    5    2
 -0.001281837118872652    5    4    5    3
 0.01275589444707049    5    4    5    4
 0.4431704039885135    5    5    1    1
 0.0203522640944307    5    5    2    1
 0.4347581715402161    5    5    2    2
 -0.003583004468731296    5    5    3    1
 0.0005582124574456153    5    5    3    2
 0.3946301223430781    5    5    3    3
 -4.999181969605561e-05    5    5    4    1
 -0.004955296816788069    5    5    4    2
 -0.01404688411784943    5    5    4    3
 0.3779402492548418    5    5    4    4
 -0.002329645239084523    5    5    5    1
 0.0008077777289623691    5    5    5    2
 0.0103049613932584    5    5    5    3
 0.001971749660273131    5    5    5    4
 0.4372268040873096    5    5    5    5
 0.0008463095623262916    6    1    1    1
 -0.0009925727255396903    6    1    2    1
 -0.0002035933751732508    6    1    2    2
 -0.00304369447108551    6    1    3    1
 -0.0009546025518815647    6    1    3    2
 -0.0002932231501668932    6    1    3    3
 0.001021530080673218    6    1    4    1
 0.001179581849474615    6    1    4    2
 0.001109057329331528    6    1    4    3
 -0.0007237466793691687    6    1    4    4
 -0.0002520581916736699    6    1    5    1
 -0.01124817801619745    6    1    5    2
 0.0004462828642958194    6    1    5    3
 -0.0004426667039252492    6    1    5    4
 0.001453385013397741    6    1    5    5
 0.01113439143518731    6    1    6    1
 -0.0004714803310408247    6    2    1    1
 -0.008060733252814378    6    2    2    1
 -0.0003219418085858526    6    2    2    2
 -0.001018224365194948    6    2    3    1
 -0.003209486716566016    6    2    3    2
 -0.0007605711520595284    6    2    3    3
 0.001246275687370313    6    2    4    1
 0.000772094224239155    6    2    4    2
 0.007147268332262476    6    2    4    3
 -0.0003687714663003194    6    2    4    4
 -0.01109741976608007    6    2    5    1
 -0.0002891930990744447    6    2    5    2
 -0.0007580435501369294    6    2    5    3
 -0.0001107416849674739    6    2    5    4
 -0.0006172762232239085    6    2    5    5
 0.000208082860481739    6    2    6    1
 0.01105761899640036    6    2    6    2
 -0.01091183430195756    6    3    1    1
 0.006838923025518879    6    3    2    1
 -0.009862831581553277    6    3    2    2
 0.0008013981852192088    6    3    3    1
 0.0002280559661616541    6    3    3    2
 -0.01430704337986167    6    3    3    3
 0.0004892987626474345    6    3    4    1
 -0.0005039565123660906    6    3    4    2
 -0.004096642219085774    6    3    4    3
 -0.009531229382856003    6    3    4    4
 0.0002147321784595652    6    3    5    1
 0.0002568401553097582    6    3    5    2
 -0.0007755511892091545    6    3    5    3
 0.01054371700199187    6    3    5    4
 -0.01676973037740844    6    3    5    5
 -0.0004727325329621803    6    3    6    1
 -0.0006373804694500438    6    3    6    2
 0.01242507693540371    6    3    6    3
 -0.007318100084677762    6    4    1    1
 -0.03210029685391966    6    4    2    1
 -0.006751044005856289    6    4    2    2
 -0.0008241767161135472    6    4    3    1
 0.0003919479990785954    6    4    3    2
 -0.004410579921144393    6    4    3    3
 0.0004528782826041755    6    4    4    1
 -1.978165527182004e-05    6    4    4    2
 0.02236466903194088    6    4    4    3
 -0.004046939004044389    6    4    4    4
 2.140477211975027e-05    6    4    5    1
 0.0001211291090341983    6    4    5    2
 0.00764550580041264    6    4    5    3
 0.0002956650003227559    6    4    5    4
 -0.005960431294911978    6    4    5    5
 0.0006040847977137223    6    4    6    1
 0.001239666346683195    6    4    6    2
 -0.00101316591445273    6    4    6    3
 0.01492766472689103    6    4    6    4
 -0.02325335827944979    6    5    1    1
 -0.2317010893335007    6    5    2    1
 -0.02207304071312358    6    5    2    2
 -0.002750630755291242    6    5    3    1
 -0.0008730915247666946    6    5    3    2
 -0.01843846345697419    6    5    3    3
 -0.003031266646570892    6    5    4    1
 -0.0005301500691794837    6    5    4    2
 0.1819814112562133    6    5    4    3
 -0.01674690795095281    6    5    4    4
 0.00791424067144969    6    5    5    1
 0.002413507822681655    6    5    5    2
 -0.03238330414497657    6    5    5    3
 0.0046541902886976    6    5    5    4
 -0.03903565332493604    6    5    5    5
 0.0006500658042579184    6    5    6    1
 0.006852146754743674    6    5    6    2
 -0.001926089867527293    6    5    6    3
 0.02417789723910739    6    5    6    4
 0.2146097256450606    6    5    6    5
 0.4225640861111292    6    6    1    1
 0.02142275782280228    6    6    2    1
 0.4158261204576034    6    6    2    2
 -0.003108763431582449    6    6    3    1
 0.001029562181962535    6    6    3    2
 0.3748393534995498    6    6    3    3
 -0.0002603724389854326    6    6    4    1
 -0.004763157001496554    6    6    4    2
 -0.01428355646713192    6    6    4    3
 0.3608749026919145    6    6    4    4
 -0.001992678453935852    6    6    5    1
 0.001531091020616124    6    6    5    2
 0.008728796923291714    6    6    5    3
 0.005183096989685052    6    6    5    4
 0.4126908228350978    6    6    5    5
 0.0005468719494564474    6    6    6    1
 -0.0006052661598584346    6    6    6    2
 -0.01281998266395641    6    6    6    3
 -0.005010890051028779    6    6    6    4
 -0.03721253638634252    6    6    6    5
 0.3997307270076121    6    6    6    6
 0.001376201006688126    7    1    1    1
 -0.000996108701684952    7    1    2    1
 0.0007740911997018839    7    1    2    2
 -0.00166030288105053    7    1    3    1
 0.00376854322519393    7    1    3    2
 0.0007859137526037178    7    1    3    3
 -0.001657023630501119    7    1    4    1
 0.001903191951364801    7    1    4    2
 -7.31256135186767e-05    7    1    4    3
 0.0002884686741155379    7    1    4    4
 -0.0007406519933789452    7    1    5    1
 0.0002961626653382646    7    1    5    2
 -0.0004732813263122606    7    1    5    3
 -0.0001214853890281211    7    1    5    4
 0.001251259416336663    7    1    5    5
 -0.00059494147771026    7    1    6    1
 4.342931466182014e-05    7    1    6    2
 -0.0002029103578863078    7    1    6    3
 0.001288544201247235    7    1    6    4
 0.001274355595225848    7    1    6    5
 0.001673331394665303    7    1    6    6
 0.01286933019831974    7    1    7    1
 0.0005559112480306512    7    2    1    1
 -0.002852263871190995    7    2    2    1
 0.0005874058394183914    7    2    2    2
 0.00353614149859533    7    2    3    1
 -0.001736283188342217    7    2    3    2
 0.001103461331336665    7    2    3    3
 0.001939550585069132    7    2    4    1
 -0.001329681772013083    7    2    4    2
 0.00277049459770064    7    2    4    3
 0.0004641125797852464    7    2    4    4
 0.0001830088145921878    7    2    5    1
 -0.0005776833193815081    7    2    5    2
 -0.000273781472275817    7    2    5    3
 -0.0009545512097424332    7    2    5    4
 -0.000328399152121839    7    2    5    5
 0.0009185885199621605    7    2    6    1
 -0.0005140473925075836    7    2    6    2
 0.000233943307984115    7    2    6    3
 0.0004210464073630814    7    2    6    4
 0.001935489756338279    7    2    6    5
 -0.0003862683234917055    7    2    6    6
 -0.0005451752875875202    7    2    7    1
 0.01257389605393345    7    2    7    2
 -0.005986932230860591    7    3    1    1
 0.02613128027732576    7    3    2    1
 -0.005314639402749851    7    3    2    2
 0.0007669111031151609    7    3    3    1
 -0.0002509328259687868    7    3    3    2
 -0.007761003939334859    7    3    3    3
 -0.0001029189848096549    7    3    4    1
 -0.0001702205143890723    7    3    4    2
 -0.02525173480344619    7    3    4    3
 -0.007839944688204164    7    3    4    4
 -0.001257541883781116    7    3    5    1
 -0.0004545294027935145    7    3    5    2
 0.003874767964112274    7    3    5    3
 -0.001167989448682174    7    3    5    4
 -0.004886658410931615    7    3    5    5
 -0.0001605485618227789    7    3    6    1
 -0.0007847358986613967    7    3    6    2
 6.479073653941833e-05    7    3    6    3
 -0.002602925047082883    7    3    6    4
 -0.02770368976634844    7    3    6    5
 -0.004602953388731988    7    3    6    6
 -0.0005286644812018706    7    3    7    1
 -2.821206956409487e-05    7    3    7    2
 0.01680713268023525    7    3    7    3
 0.01404535135810292    7    4    1    1
 0.008848892740606391    7    4    2    1
 0.01287710246165007    7    4    2    2
 0.001384058788839768    7    4    3    1
 5.45199357487003e-05    7    4    3    2
 0.005523658345254736    7    4    3    3
 0.0007646874576220361    7    4    4    1
 -0.0001063764081602367    7    4    4    2
 -0.009817904263797868    7    4    4    3
 0.008337436644274374    7    4    4    4
 -0.0006429546164877373    7    4    5    1
 0.001256840026311703    7    4    5    2
 0.001895549478744245    7    4    5    3
 -2.300611442718533e-05    7    4    5    4
 0.007166712144942155    7    4    5    5
 -0.001529575183124436    7    4    6    1
 0.0001255066360188787    7    4    6    2
 -0.0003876055347849559    7    4    6    3
 -0.001768839095084503    7    4    6    4
 -0.01072111459900228    7    4    6    5
 0.007654396813370762    7    4    6    6
 -0.0004126914976974091    7    4    7    1
 -0.0001187822112661622    7    4    7    2
 0.001603586882356123    7    4    7    3
 0.01373364125128742    7    4    7    4
 0.005754202760583577    7    5    1    1
 0.00251934942075077    7    5    2    1
 0.005821402008574949    7    5    2    2
 0.0002663807256120312    7    5    3    1
 5.375043576960704e-05    7    5    3    2
 0.003012430454890252    7    5    3    3
 0.0001761701949508488    7    5    4    1
 -0.0002506164930709107    7    5    4    2
 -0.002026541624747919    7    5    4    3
 0.003214234730063919    7    5    4    4
 -0.0003849762764531914    7    5    5    1
 0.000231226832609345    7    5    5    2
 0.0003188416966775822    7    5    5    3
 0.0009506305151315312    7    5    5    4
 0.004941127237993933    7    5    5    5
 -0.0002278770468649033    7    5    6    1
 0.000171352156024655    7    5    6    2
 -0.0001947536364938178    7    5    6    3
 -0.0005359728137011455    7    5    6    4
 -0.002645275140775373    7    5    6    5
 0.004935354271359635    7    5    6    6
 0.0002931802034054899    7    5    7    1
 0.0002406740833029537    7    5    7    2
 0.0003192360129753374    7    5    7    3
 0.001091827445169084    7    5    7    4
 0.007613578127095282    7    5    7    5
 -0.01294582644762384    7    6    1    1
 -0.007340033317000182    7    6    2    1
 -0.0115247416228822    7    6    2    2
 0.0002432573523495529    7    6    3    1
 -0.0004885338826178408    7    6    3    2
 -0.01100821373295899    7    6    3    3
 3.128376241121244e-05    7    6    4    1
 -0.0002838549286077928    7    6    4    2
 0.003751902446135403    7    6    4    3
 -0.01018148960593117    7    6    4    4
 -0.0001229615821588721    7    6    5    1
 0.0005574710749303112    7    6    5    2
 -0.001592933176977618    7    6    5    3
 -0.0004550491619901858    7    6    5    4
 -0.01068894690491849    7    6    5    5
 -0.000580502898025617    7    6    6    1
 0.000440071552879771    7    6    6    2
 0.0008568102631351485    7    6    6    3
 0.001050466277728342    7    6    6    4
 0.006438411106599985    7    6    6    5
 -0.0114057950697556    7    6    6    6
 -0.0004694202662564329    7    6    7    1
 -0.0003690120730948805    7    6    7    2
 0.001157460483550583    7    6    7    3
 -0.001533226693450033    7    6    7    4
 0.0001094484833410285    7    6    7    5
 0.008969980498816954    7    6    7    6
 0.4431455426808832    7    7    1    1
 -0.0200864635393534    7    7    2    1
 0.434405152382776    7    7    2    2
 -0.003971624008734094    7    7    3    1
 -0.0005075563286251472    7    7    3    2
 0.3945053330396947    7    7    3    3
 2.111070482048526e-05    7    7    4    1
 -0.004694176613947024    7    7    4    2
 0.01559404132837927    7    7    4    3
 0.3779254178243102    7    7    4    4
 -0.001167551570445582    7    7    5    1
 0.000639050045510233    7    7    5    2
 0.004407646620705087    7    7    5    3
 0.0009283547322492028    7    7    5    4
 0.41907071471009    7    7    5    5
 0.001517701768344703    7    7    6    1
 0.0006503835305464818    7    7    6    2
 -0.01693823138646355    7    7    6    3
 -0.003126363770818931    7    7    6    4
 -0.003083846830445665    7    7    6    5
 0.3968867504783101    7    7    6    6
 0.00128645684375956    7    7    7    1
 0.0006344776321875675    7    7    7    2
 -0.009903452685300544    7    7    7    3
 0.007689720900388392    7    7    7    4
 0.00453847543111825    7    7    7    5
 -0.01045546521502945    7    7    7    6
 0.4369050414172858    7    7    7    7
 -0.0004131781107028311    8    1    1    1
 0.0006978240436662462    8    1    2    1
 -0.002916275627098731    8    1    2    2
 7.503595928828653e-05    8    1    3    1
 0.0001067062773289717    8    1    3    2
 -0.0001569527470337566    8    1    3    3
 -5.277401345087281e-05    8    1    4    1
 0.003315337783425275    8    1    4    2
 0.0004499219710431584    8    1    4    3
 -0.0004058101419241821    8    1    4    4
 0.0004396446885552296    8    1    5    1
 -0.001119439867226346    8    1    5    2
 -0.001533466617173224    8    1    5    3
 -0.003307782486055335    8    1    5    4
 -0.001159494625243157    8    1    5    5
 0.0007061201998923534    8    1    6    1
 0.0001602650174971241    8    1    6    2
 -0.002880108853458045    8    1    6    3
 -0.001832574115323438    8    1    6    4
 -0.0009226470095462725    8    1    6    5
 -0.00158997770747833    8    1    6    6
 0.0003485189032587893    8    1    7    1
 0.001235311098343695    8    1    7    2
 -0.001472393560806687    8    1    7    3
 0.003187667215876128    8    1    7    4
 -2.112733799782736e-05    8    1    7    5
 -0.001158366665175453    8    1    7    6
 0.0006218962429503394    8    1    7    7
 0.01257914749265555    8    1    8    1
 0.0004340115597618033    8    2    1    1
 -0.02532185454699666    8    2    2    1
 0.0003840775643206554    8    2    2    2
 -1.374446455651568e-05    8    2    3    1
 6.162211608829005e-05    8    2    3    2
 -0.001488065811239617    8    2    3    3
 0.003093047480576026    8    2    4    1
 -0.0002012400007815675    8    2    4    2
 0.02027109956608983    8    2    4    3
 6.063683658845651e-05    8    2    4    4
 -0.0003854861281633065    8    2    5    1
 0.0006813474789660679    8    2    5    2
 0.0004031563622499112    8    2    5    3
 0.003084021364808778    8    2    5    4
 -0.002406714716222095    8    2    5    5
 0.0003429085314749964    8    2    6    1
 0.001591830836052835    8    2    6    2
 0.001377144084004335    8    2    6    3
 0.006372369549793513    8    2    6    4
 0.02106702535313852    8    2    6    5
 0.0007732084889141815    8    2    6    6
 0.001239224589507228    8    2    7    1
 0.0007664956956302546    8    2    7    2
 -0.006477162135981815    8    2    7    3
 0.001245051710082541    8    2    7    4
 0.0003418836509793162    8    2    7    5
 -0.001105653194729929    8    2    7    6
 0.0008847887100555936    8    2    7    7
 -5.187539197620321e-05    8    2    8    1
 0.01671611869607571    8    2    8    2
 0.0006373550608678799    8    3    1    1
 -0.0006310186325965741    8    3    2    1
 0.0003786886958521538    8    3    2    2
 -9.576658825136634e-05    8    3    3    1
 0.0008223851049288894    8    3    3    2
 0.0006599842669248129    8    3    3    3
 -0.0005558474282547819    8    3    4    1
 0.0008152651348878455    8    3    4    2
 0.0002993231796120364    8    3    4    3
 -0.002788156881769001    8    3    4    4
 0.0006454165568137187    8    3    5    1
 -0.0002973061894543673    8    3    5    2
 4.376134920397772e-05    8    3    5    3
 0.0001089653017743812    8    3    5    4
 0.0004200725324224752    8    3    5    5
 0.0002431461733224561    8    3    6    1
 -0.0006528823416606513    8    3    6    2
 -0.0003441591654606308    8    3    6    3
 -6.425620583929004e-08    8    3    6    4
 4.516446051633732e-05    8    3    6    5
 0.0004047910694370799    8    3    6    6
 0.000680376093729535    8    3    7    1
 0.0001421225907166706    8    3    7    2
 -6.876183089157144e-05    8    3    7    3
 0.0001035935702123379    8    3    7    4
 -2.298468585026741e-05    8    3    7    5
 -0.0002215517614000898    8    3    7    6
 0.0006252411745118345    8    3    7    7
 0.0004691586544158046    8    3    8    1
 6.954638218367314e-05    8    3    8    2
 0.006527690348711142    8    3    8    3
 0.0001337569819360919    8    4    1    1
 0.06461213418070309    8    4    2    1
 5.260027555372645e-05    8    4    2    2
 0.0002815283455253255    8    4    3    1
 0.0003618370635844416    8    4    3    2
 1.526089628735357e-05    8    4    3    3
 0.001332004396204643    8    4    4    1
 0.0004839660273956433    8    4    4    2
 -0.05592270487130761    8    4    4    3
 -1.130782745808084e-05    8    4    4    4
 -0.0009806026068617287    8    4    5    1
 -0.001246959539598761    8    4    5    2
 0.00887541589512154    8    4    5    3
 -0.00176288003498599    8    4    5    4
 0.004599520058901385    8    4    5    5
 0.0003609217539595614    8    4    6    1
 -0.002426932541503394    8    4    6    2
 0.0004654033772670493    8    4    6    3
 -0.006958234637998156    8    4    6    4
 -0.05344104321575464    8    4    6    5
 0.003953695623262217    8    4    6    6
 -0.001336483914119666    8    4    7    1
 -0.001185451830290317    8    4    7    2
 0.007375664373880201    8    4    7    3
 0.002946660408602911    8    4    7    4
 0.0004810181645619789    8    4    7    5
 -0.001138438086900345    8    4    7    6
 -0.004253536780469003    8    4    7    7
 0.0001684394593621302    8    4    8    1
 -0.006848349626944175    8    4    8    2
 -7.076449050335368e-05    8    4    8    3
 0.02306728751121983    8    4    8    4
 0.001902703998119632    8    5    1    1
 -0.008167913804269717    8    5    2    1
 0.002073254377867514    8    5    2    2
 0.0007103517814954491    8    5    3    1
 -0.00291783467046324    8    5    3    2
 0.002010964008526531    8    5    3    3
 0.001802205666222577    8    5    4    1
 -0.001188026746354019    8    5    4    2
 0.008283860741849881    8    5    4    3
 0.002405913567091648    8    5    4    4
 0.001004311731532303    8    5    5    1
 -0.0005003750357791244    8    5    5    2
 -0.001032947025856447    8    5    5    3
 0.0007272098944084614    8    5    5    4
 0.001710732499098185    8    5    5    5
 0.0004703692229829178    8    5    6    1
 0.0008703779625074989    8    5    6    2
 -8.354048282295262e-05    8    5    6    3
 -0.002203635949899388    8    5    6    4
 0.00817733994159746    8    5    6    5
 0.000359512047660181    8    5    6    6
 -0.005138531080747937    8    5    7    1
 -0.0004073345499062462    8    5    7    2
 -0.002307510603722419    8    5    7    3
 -7.626049771721407e-05    8    5    7    4
 -0.0002498834500820327    8    5    7    5
 4.055025065282295e-06    8    5    7    6
 0.003300637566396346    8    5    7    7
 -8.038466045962771e-05    8    5    8    1
 0.0008069805712375449    8    5    8    2
 -0.0006002998937799261    8    5    8    3
 -0.0008149535421372265    8    5    8    4
 0.01235626143740629    8    5    8    5
 0.000492135934783357    8    6    1    1
 0.009868395328940561    8    6    2    1
 0.0007280776663493832    8    6    2    2
 0.002768998427577394    8    6    3    1
 -0.001164926896037811    8    6    3    2
 0.001919258565727445    8    6    3    3
 0.001373407970623157    8    6    4    1
 -0.001549183513515722    8    6    4    2
 -0.007832998157834281    8    6    4    3
 0.0004019896733087975    8    6    4    4
 -0.0004341168374427249    8    6    5    1
 0.0003175127427168021    8    6    5    2
 0.001297206421550392    8    6    5    3
 -0.002939756062589178    8    6    5    4
 0.002918667301486756    8    6    5    5
 0.0005821072650652641    8    6    6    1
 -0.0004518159651557849    8    6    6    2
 0.0001802815940611476    8    6    6    3
 -0.0003597512841431815    8    6    6    4
 -0.008242382819468394    8    6    6    5
 0.002311134734432751    8    6    6    6
 0.0006728912204151565    8    6    7    1
 0.004682962814390546    8    6    7    2
 0.001486484755061087    8    6    7    3
 -0.0009057213439001917    8    6    7    4
 -1.682826976313582e-05    8    6    7    5
 -0.0003715651342480655    8    6    7    6
 0.001246202265216072    8    6    7    7
 0.0001632234204000136    8    6    8    1
 -0.0009036218749596252    8    6    8    2
 5.002475516556534e-05    8    6    8    3
 0.001366338327401524    8    6    8    4
 -0.002221941902021983    8    6    8    5
 0.01149596120114672    8    6    8    6
 0.000658750654205517    8    7    1    1
 0.008214167958574143    8    7    2    1
 0.0005787539199921902    8    7    2    2
 0.0009054974306819761    8    7    3    1
 0.002960362229168493    8    7    3    2
 0.0008402586878151735    8    7    3    3
 -0.001910557788042464    8    7    4    1
 -0.0008421293098404387    8    7    4    2
 -0.007902508327498468    8    7    4    3
 0.0006578020537003692    8    7    4    4
 0.004888518089572664    8    7    5    1
 -0.0006068873385568464    8    7    5    2
 0.002422879204552641    8    7    5    3
 0.0001740166271985911    8    7    5    4
 0.002224457450195015    8    7    5    5
 0.0008050472702434624    8    7    6    1
 -0.004691123533954997    8    7    6    2
 0.000307732676723691    8    7    6    3
 -0.0002919798530365769    8    7    6    4
 -0.008249050338472407    8    7    6    5
 0.001956028346653723    8    7    6    6
 -0.0008079149471837742    8    7    7    1
 -0.0003593335218895198    8    7    7    2
 0.0009124680542799208    8    7    7    3
 -8.471803330615782e-05    8    7    7    4
 8.360579314500997e-06    8    7    7    5
 -0.0005210843350691123    8    7    7    6
 0.0004449665974751103    8    7    7    7
 4.052969086559132e-05    8    7    8    1
 -0.0007549105680950522    8    7    8    2
 0.0005865772763552244    8    7    8    3
 0.003885721491986105    8    7    8    4
 0.0005509315605333587    8    7    8    5
 -0.0004085831229266791    8    7    8    6
 0.01237533044183531    8    7    8    7
 0.4261401888550832    8    8    1    1
 -0.0001923167934230208    8    8    2    1
 0.4185649734288001    8    8    2    2
 -0.00557883019812319    8    8    3    1
 7.081365815074782e-05    8    8    3    2
 0.3923965802934358    8    8    3    3
 -0.0001323626038402044    8    8    4    1
 -0.003467847158256193    8    8    4    2
 0.0009254664216576722    8    8    4    3
 0.3771430066314657    8    8    4    4
 -0.001453633933946384    8    8    5    1
 0.0009868213909041742    8    8    5    2
 0.008625395909728044    8    8    5    3
 0.0005368886913520954    8    8    5    4
 0.3946107879269601    8    8    5    5
 0.0004366334832065095    8    8    6    1
 -0.000313818315090964    8    8    6    2
 -0.01355796849267437    8    8    6    3
 -0.002363625809692889    8    8    6    4
 -0.01759827969475099    8    8    6    5
 0.3765159014387916    8    8    6    6
 0.001129251147334148    8    8    7    1
 0.0002143119450120453    8    8    7    2
 -0.008659008932874506    8    8    7    3
 0.006392332405965667    8    8    7    4
 0.003571863479958337    8    8    7    5
 -0.01040923193368102    8    8    7    6
 0.3944576839615437    8    8    7    7
 -0.0003206721234088348    8    8    8    1
 0.0004346590932772186    8    8    8    2
 0.0005490589338876249    8    8    8    3
 -2.119230777917219e-05    8    8    8    4
 0.002145637739032535    8    8    8    5
 0.001322215987795817    8    8    8    6
 0.0009754193940641541    8    8    8    7
 0.4044908829605396    8    8    8    8
 -0.0001063373044645918    9    1    1    1
 0.02761396584739462    9    1    2    1
 -0.0001114510881272908    9    1    2    2
 0.0008929377300748346    9    1    3    1
 0.002811137284218657    9    1    3    2
 -0.001654899062524517    9    1    3    3
 0.001673231392314084    9    1    4    1
 -3.36958584263146e-05    9    1    4    2
 -0.02105201771818426    9    1    4    3
 -0.000210487923837444    9    1    4    4
 -0.001430474180129769    9    1    5    1
 0.00122047186292092    9    1    5    2
 0.006091035597631289    9    1    5    3
 0.001719470352720655    9    1    5    4
 0.001952786341759038    9    1    5    5
 -0.0008099500365109015    9    1    6    1
 -0.0004931826807236076    9    1    6    2
 0.002398180675851279    9    1    6    3
 0.0002633593837983251    9    1    6    4
 -0.02103651612331299    9    1    6    5
 0.003046617315148091    9    1    6    6
 0.001597579051195531    9    1    7    1
 3.498303061822115e-05    9    1    7    2
 -0.001000200282501329    9    1    7    3
 0.002888805793834006    9    1    7    4
 0.0009145813782623511    9    1    7    5
 -0.001501249033063192    9    1    7    6
 -0.002072468004270472    9    1    7    7
 9.568503585885368e-05    9    1    8    1
 0.01075140078802744    9    1    8    2
 0.0001927655171755719    9    1    8    3
 0.005553053585964738    9    1    8    4
 -0.001773732414441561    9    1    8    5
 0.0007509448139624832    9    1    8    6
 0.001315391071223523    9    1    8    7
 2.266966509307901e-06    9    1    8    8