 &FCI NORB=  10,NELEC=10,MS2=0,
  ORBSYM=1,1,1,1,1,1,1,1,1,1
  ISYM=1,
 &END
 0.5095593478834159    1    1    1    1
 0.008428031260817925    1    1    2    1
 0.4981381385418058    1    1    2    2
 -0.008215784091542201    1    1    3    1
 0.0002076514123418279    1    1    3    2
 0.4471268366676822    1    1    3    3
 -0.0003078009422172569    1    1    4    1
 -0.001022954561969825    1    1    4    2
 -0.005448338920973204    1    1    4    3
 0.413844046070071    1    1    4    4
 2.820578629030707e-05    1    1    5    1
 0.0002989628144981632    1    1    5    2
 9.601915908651125e-05    1    1    5    3
 -0.001913905102315082    1    1    5    4
 0.4299081252139434    1    1    5    5
 -0.0007708900044897313    1    1    6    1
 -8.667966441484876e-05    1    1    6    2
 -0.0005727393287043138    1    1    6    3
 0.0001639305656519693    1    1    6    4
 -0.005969948106034111    1    1    6    5
 0.3849216174499695    1    1    6    6
 0.0002315847039080464    1    1    7    1
 0.0006347953046977398    1    1    7    2
 0.0007051269766790248    1    1    7    3
 -0.02462637426084389    1    1    7    4
 -0.001233903377145998    1    1    7    5
 -8.487961956396735e-05    1    1    7    6
 0.4638521898484065    1    1    7    7
 -7.149077270927895e-05    1    1    8    1
 -0.0001524639913965259    1    1    8    2
 0.0006917255396790786    1    1    8    3
 -7.994998488034151e-05    1    1    8    4
 -0.001042401868247597    1    1    8    5
 0.003360208605912567    1    1    8    6
 0.0002949126828334075    1    1    8    7
 0.4267748182089582    1    1    8    8
 -0.0001228772136852158    1    1    9    1
 3.099814067084039e-06    1    1    9    2
 -4.473369346706495e-06    1    1    9    3
 0.0007120885120783897    1    1    9    4
 -0.01054658179930772    1    1    9    5
 -0.0001960361821421661    1    1    9    6
 0.000501396125256532    1    1    9    7
 0.008791405055272788    1    1    9    8
 0.44863656361919    1    1    9    9
 -0.004116276566653174    1    1   10    1
 0.0002666812831388313    1    1   10    2
 -0.01921298452870474    1    1   10    3
 -0.0001772618894388186    1    1   10    4
 6.83470331351594e-05    1    1   10    5
 -0.0004245673496742625    1    1   10    6
 -0.00653945884012563    1    1   10    7
 -0.0007333123972685009    1    1   10    8
 -0.0001895430270575753    1    1   10    9
 0.4337703733609257    1    1   10   10
 0.008428031260817953    2    1    1    1
 0.3072943001424081    2    1    2    1
 -0.008948885358208716    2    1    2    2
 -0.000332288891590175    2    1    3    1
 0.001379815138775758    2    1    3    2
 0.0216878620562812    2    1    3    3
 0.003707333976965297    2    1    4    1
 -0.0002309700070956397    2    1    4    2
 -0.2391725307178829    2    1    4    3
 -0.02178875298299246    2    1    4    4
 -0.001039844497182058    2    1    5    1
 1.862238183916037e-05    2    1    5    2
 -0.002513071027760477    2    1    5    3
 0.0003510317626301772    2    1    5    4
 -0.001109367440084774    2    1    5    5
 -9.435499919808674e-05    2    1    6    1
 -0.001580220075070742    2    1    6    2
 -0.0005591497178279753    2    1    6    3
 0.003945096564872377    2    1    6    4
 -0.2122046394680868    2    1    6    5
 0.0007461732351884028    2    1    6    6
 0.009733240924308214    2    1    7    1
 -0.0003466361483132133    2    1    7    2
 -0.0174675824300741    2    1    7    3
 -0.001243730650123823    2    1    7    4
 -0.0001380806187397552    2    1    7    5
 6.824637808169019e-05    2    1    7    6
 0.005931759952839426    2    1    7    7
 8.80238541529077e-05    2    1    8    1
 -6.289754368989792e-05    2    1    8    2
 9.574790980482889e-05    2    1    8    3
 0.0005192849207994875    2    1    8    4
 -0.007376757213835489    2    1    8    5
 0.0002641640796419084    2    1    8    6
 -0.00259408776664901    2    1    8    7
 0.04063027237683122    2    1    8    8
 -7.210801429164554e-05    2    1    9    1
 -0.0003989748916190389    2    1    9    2
 0.0004676197366936226    2    1    9    3
 4.972590558684035e-05    2    1    9    4
 0.000715387429794382    2    1    9    5
 0.00280577231373676    2    1    9    6
 -0.0006898328683153099    2    1    9    7
 0.2432562248299502    2    1    9    8
 -0.04120212458576646    2    1    9    9
 0.0002322840130886197    2    1   10    1
 0.00363447068938532    2    1   10    2
 -0.001759817177311378    2    1   10    3
 0.03730972301208646    2    1   10    4
 0.001603013336424323    2    1   10    5
 0.000179581133937979    2    1   10    6
 -0.2528406739951053    2    1   10    7
 -0.001597585804945829    2    1   10    8
 -0.003501560858836197    2    1   10    9
 -0.006631228509018344    2    1   10   10
 0.498138138541806    2    2    1    1
 -0.008948885358208689    2    2    2    1
 0.4894836979105012    2    2    2    2
 -0.007133553432683892    2    2    3    1
 0.0001723126282874281    2    2    3    2
 0.4366874094235968    2    2    3    3
 -0.0005018510628728469    2    2    4    1
 -0.001729335513717622    2    2    4    2
 0.008024619606842863    2    2    4    3
 0.407643977178936    2    2    4    4
 8.900594579135113e-05    2    2    5    1
 0.0004020638201735344    2    2    5    2
 0.0002279171919959242    2    2    5    3
 -0.001903785641068179    2    2    5    4
 0.4221752852739603    2    2    5    5
 -0.0008835349719962318    2    2    6    1
 6.634507919017762e-06    2    2    6    2
 -0.0005690046011634579    2    2    6    3
 -6.178990771103809e-05    2    2    6    4
 0.006057795276851231    2    2    6    5
 0.3809109047998578    2    2    6    6
 -0.0003328840033037621    2    2    7    1
 0.0001678269735500559    2    2    7    2
 0.001691058292789417    2    2    7    3
 -0.02434756275357052    2    2    7    4
 -0.001211032551797425    2    2    7    5
 -9.593237329234144e-05    2    2    7    6
 0.4543142395583926    2    2    7    7
 -6.222216119708412e-05    2    2    8    1
 -0.0001608845412287285    2    2    8    2
 0.000646401396251382    2    2    8    3
 -0.0001180959194543533    2    2    8    4
 -0.000642993937344967    2    2    8    5
 0.003549487563351002    2    2    8    6
 0.0004362571213101882    2    2    8    7
 0.4173407927409616    2    2    8    8
 -0.0001452764590589156    2    2    9    1
 1.269143533778883e-05    2    2    9    2
 -2.844462795670299e-05    2    2    9    3
 0.0006511841534004711    2    2    9    4
 -0.01063690084934597    2    2    9    5
 -0.0003647605137849091    2    2    9    6
 0.0006116616236092887    2    2    9    7
 -0.00517026126597897    2    2    9    8
 0.4416360808779305    2    2    9    9
 -0.003663445821665688    2    2   10    1
 4.2187664765065e-05    2    2   10    2
 -0.01909478665528191    2    2   10    3
 -0.002284207511348477    2    2   10    4
 -3.013179388032094e-05    2    2   10    5
 -0.0004264288868379975    2    2   10    6
 0.007740598197686905    2    2   10    7
 -0.0006829047635074116    2    2   10    8
 1.950562086684357e-05    2    2   10    9
 0.4272750386427401    2    2   10   10
 -0.008215784091542198    3    1    1    1
 -0.0003322888915901769    3    1    2    1
 -0.007133553432683892    3    1    2    2
 0.01637149069433143    3    1    3    1
 0.001327056929854534    3    1    3    2
 -0.007406415226803154    3    1    3    3
 -0.0003355956852041653    3    1    4    1
 -0.01456332006223323    3    1    4    2
 0.0002813802747204759    3    1    4    3
 -0.006596610680764356    3    1    4    4
 4.097314130913879e-06    3    1    5    1
 -0.0001783414805198405    3    1    5    2
 -1.659764206639122e-05    3    1    5    3
 0.0001397234370078691    3    1    5    4
 -0.007072949056684145    3    1    5    5
 1.08889289101436e-05    3    1    6    1
 -3.944695850276961e-05    3    1    6    2
 2.952690892152773e-05    3    1    6    3
 -8.738394409474037e-07    3    1    6    4
 0.0002975793511127314    3    1    6    5
 -0.006120559083863606    3    1    6    6
 0.0001227746799972179    3    1    7    1
 0.001055818819094695    3    1    7    2
 -9.285228805679124e-06    3    1    7    3
 0.0002366535194143026    3    1    7    4
 0.00012546519020465    3    1    7    5
 -2.251130262068935e-05    3    1    7    6
 -0.004610437314651584    3    1    7    7
 4.724079292620911e-05    3    1    8    1
 1.300248576995336e-05    3    1    8    2
 -5.741130394046892e-05    3    1    8    3
 -3.520881069028039e-06    3    1    8    4
 -0.0007780611820244113    3    1    8    5
 0.004852527066117957    3    1    8    6
 4.272293731834501e-05    3    1    8    7
 -0.007493016343587644    3    1    8    8
 -2.952406462309199e-06    3    1    9    1
 5.22172909716602e-06    3    1    9    2
 -1.138872764454373e-05    3    1    9    3
 0.0001242075809704559    3    1    9    4
 -0.005684716043936337    3    1    9    5
 -0.0001178587840950085    3    1    9    6
 6.890946745684415e-05    3    1    9    7
 -0.0004042104943485891    3    1    9    8
 -0.007943722659370033    3    1    9    9
 -0.002762508486902307    3    1   10    1
 -0.0001267467211983617    3    1   10    2
 0.0006282832659871335    3    1   10    3
 -1.961603428919271e-05    3    1   10    4
 9.557702795905771e-06    3    1   10    5
 1.700729609378643e-05    3    1   10    6
 0.0001448786034596065    3    1   10    7
 6.736837201082953e-06    3    1   10    8
 -1.043802571105415e-05    3    1   10    9
 -0.004168940886992849    3    1   10   10
 0.0002076514123418286    3    2    1    1
 0.001379815138775759    3    2    2    1
 0.0001723126282874278    3    2    2    2
 0.001327056929854532    3    2    3    1
 0.01556280190453994    3    2    3    2
 0.0003433397342207633    3    2    3    3
 -0.01461191620630439    3    2    4    1
 0.0004830155904552852    3    2    4    2
 -0.001535277084130238    3    2    4    3
 5.340697156042533e-05    3    2    4    4
 -0.0001567316880441807    3    2    5    1
 1.67885359989618e-05    3    2    5    2
 -3.317105506409274e-05    3    2    5    3
 2.156881801726471e-06    3    2    5    4
 0.0001394065519318929    3    2    5    5
 -3.842924651947886e-05    3    2    6    1
 -4.746990705225456e-05    3    2    6    2
 -1.841765758752576e-06    3    2    6    3
 2.537439504061707e-05    3    2    6    4
 -0.0004288776850997096    3    2    6    5
 0.0001194353756399978    3    2    6    6
 0.001226393331983207    3    2    7    1
 6.956624124787624e-05    3    2    7    2
 -0.0003422756765315343    3    2    7    3
 -1.57434703354327e-05    3    2    7    4
 1.771202879625401e-05    3    2    7    5
 -4.375972183673642e-05    3    2    7    6
 0.0003359194743112948    3    2    7    7
 1.205106374406407e-05    3    2    8    1
 -2.21963558867202e-05    3    2    8    2
 -9.769477146138478e-06    3    2    8    3
 0.0001102477441005831    3    2    8    4
 -0.005815613814918675    3    2    8    5
 0.000561667078260349    3    2    8    6
 6.474786336742595e-05    3    2    8    7
 0.0002696233394324418    3    2    8    8
 5.186848574088257e-05    3    2    9    1
 -5.393325893502309e-06    3    2    9    2
 -2.501433375696576e-05    3    2    9    3
 -1.012880454929547e-05    3    2    9    4
 0.0003231964991421035    3    2    9    5
 0.005066589007576742    3    2    9    6
 1.791229462654744e-05    3    2    9    7
 0.0007226859633318971    3    2    9    8
 4.028712586263473e-05    3    2    9    9
 -0.0001183274215439592    3    2   10    1
 -0.002862473279378573    3    2   10    2
 5.568308046609994e-06    3    2   10    3
 8.634421719336933e-05    3    2   10    4
 1.006939828167845e-05    3    2   10    5
 -7.023561795330136e-06    3    2   10    6
 -0.003473543752514512    3    2   10    7
 -4.268228640432977e-05    3    2   10    8
 -0.0001104998089827749    3    2   10    9
 0.0001390751348648801    3    2   10   10
 0.4471268366676822    3    3    1    1
 0.02168786205628111    3    3    2    1
 0.4366874094235968    3    3    2    2
 -0.007406415226803161    3    3    3    1
 0.0003433397342207578    3    3    3    2
 0.4532326465471487    3    3    3    3
 -3.567043386330186e-05    3    3    4    1
 -0.001456700875442395    3    3    4    2
 -0.02033935456077311    3    3    4    3
 0.4161356692371951    3    3    4    4
 -3.210485889050541e-05    3    3    5    1
 0.0003826114528459046    3    3    5    2
 -6.346207679627032e-05    3    3    5    3
 -0.001554028787318639    3    3    5    4
 0.4090802681765129    3    3    5    5
 -0.0006303080830245417    3    3    6    1
 -0.000164406453367176    3    3    6    2
 -0.0006122949582305539    3    3    6    3
 0.0004035083147023409    3    3    6    4
 -0.01739708147190069    3    3    6    5
 0.3651355589334577    3    3    6    6
 0.0006910895822055032    3    3    7    1
 0.0005302280617693559    3    3    7    2
 -6.561100830322999e-05    3    3    7    3
 -0.022423461287883    3    3    7    4
 -0.001286761745566059    3    3    7    5
 -9.838024926089699e-06    3    3    7    6
 0.4239561554571359    3    3    7    7
 -2.16080089716908e-05    3    3    8    1
 -0.0001552759508434837    3    3    8    2
 0.0007367520426750452    3    3    8    3
 -4.087163384600958e-05    3    3    8    4
 -0.001956815520293899    3    3    8    5
 0.00602076882224338    3    3    8    6
 4.748249845265388e-05    3    3    8    7
 0.4142924092761219    3    3    8    8
 -0.0001004890514210988    3    3    9    1
 7.703605931497215e-06    3    3    9    2
 1.053256697603269e-05    3    3    9    3
 0.0006681393972888059    3    3    9    4
 -0.01322566764894076    3    3    9    5
 -3.916695130702641e-06    3    3    9    6
 0.0003627688385080888    3    3    9    7
 0.02220836520259617    3    3    9    8
 0.4311777451104337    3    3    9    9
 -0.003851469999825531    3    3   10    1
 0.0003683571335288474    3    3   10    2
 -0.0221307933382289    3    3   10    3
 0.001937456288487624    3    3   10    4
 0.0002005787663716344    3    3   10    5
 -0.0005544404339361498    3    3   10    6
 -0.01872636063177808    3    3   10    7
 -0.0009973302619476123    3    3   10    8
 -0.0003613799488397188    3    3   10    9
 0.3967594785780306    3    3   10   10
 -0.0003078009422172582    4    1    1    1
 0.003707333976965297    4    1    2    1
 -0.0005018510628728486    4    1    2    2
 -0.0003355956852041644    4    1    3    1
 -0.01461191620630439    4    1    3    2
 -3.567043386330083e-05    4    1    3    3
 0.01427267483369709    4    1    4    1
 -0.001326966467459897    4    1    4    2
 -0.0034935715055372    4    1    4    3
 -0.0006515052281293265    4    1    4    4
 -4.659986618551126e-05    4    1    5    1
 7.620763133113083e-06    4    1    5    2
 0.0001114182516839304    4    1    5    3
 1.200537105030522e-05    4    1    5    4
 -0.0003583893314988173    4    1    5    5
 1.471247902686478e-05    4    1    6    1
 0.0001800667836658718    4    1    6    2
 -1.075335372661024e-05    4    1    6    3
 4.101664833989932e-05    4    1    6    4
 -0.003456883225170854    4    1    6    5
 -0.0002762666658618493    4    1    6    6
 -0.001909312619235016    4    1    7    1
 2.16764513554369e-05    4    1    7    2
 -4.264029987855876e-05    4    1    7    3
 -6.379420528358088e-07    4    1    7    4
 -1.326163310903816e-05    4    1    7    5
 0.0001313013975827359    4    1    7    6
 -0.000268395921423658    4    1    7    7
 -9.185480998306385e-07    4    1    8    1
 6.181308879540958e-05    4    1    8    2
 5.510571638319492e-06    4    1    8    3
 -6.430386965725899e-05    4    1    8    4
 0.005241004929300919    4    1    8    5
 -0.0002277755670574994    4    1    8    6
 -0.0001695733442728814    4    1    8    7
 0.000320706744937707    4    1    8    8
 4.135966226647021e-05    4    1    9    1
 -5.930284592747066e-06    4    1    9    2
 3.575500973307578e-05    4    1    9    3
 1.641558175514566e-05    4    1    9    4
 -0.000631704077727417    4    1    9    5
 -0.004565013034669921    4    1    9    6
 -1.603052630679157e-06    4    1    9    7
 0.003987591194538026    4    1    9    8
 -0.001048052887047234    4    1    9    9
 -6.911754119740291e-05    4    1   10    1
 0.003516327968815541    4    1   10    2
 -1.046686485990924e-05    4    1   10    3
 0.0006377605901875535    4    1   10    4
 2.914173058238896e-05    4    1   10    5
 1.132033321139906e-05    4    1   10    6
 -0.0009409486562808043    4    1   10    7
 8.811721274101922e-07    4    1   10    8
 9.932761060577186e-05    4    1   10    9
 -0.000289408276646021    4    1   10   10
 -0.00102295456196983    4    2    1    1
 -0.0002309700070956417    4    2    2    1
 -0.001729335513717619    4    2    2    2
 -0.01456332006223324    4    2    3    1
 0.000483015590455283    4    2    3    2
 -0.001456700875442397    4    2    3    3
 -0.001326966467459898    4    2    4    1
 0.01381124366189052    4    2    4    2
 0.0001683932726544049    4    2    4    3
 -0.001070830051599964    4    2    4    4
 1.556562402965775e-05    4    2    5    1
 -6.777592808673676e-05    4    2    5    2
 9.439710962855878e-06    4    2    5    3
 -7.190711321324668e-06    4    2    5    4
 -0.0003036308967710621    4    2    5    5
 0.000228612770304144    4    2    6    1
 1.841709041810547e-06    4    2    6    2
 4.279939543531494e-05    4    2    6    3
 -5.715842584195126e-06    4    2    6    4
 0.0001987441654009227    4    2    6    5
 -0.0001553986826558365    4    2    6    6
 2.410332844691478e-05    4    2    7    1
 -0.00203691382140464    4    2    7    2
 1.412745345108998e-05    4    2    7    3
 -5.650519833122682e-05    4    2    7    4
 -7.034126282397832e-05    4    2    7    5
 1.162084059572064e-05    4    2    7    6
 -0.003376667696997458    4    2    7    7
 2.178145946495037e-05    4    2    8    1
 -1.313881916286568e-05    4    2    8    2
 -9.846522379022248e-06    4    2    8    3
 7.255398674752242e-06    4    2    8    4
 0.0001226607923285365    4    2    8    5
 -0.004276234516804115    4    2    8    6
 -2.416829104159996e-05    4    2    8    7
 -0.0006333926471848701    4    2    8    8
 5.517847183462727e-06    4    2    9    1
 5.64925876912893e-05    4    2    9    2
 1.992888352981524e-05    4    2    9    3
 -7.191615949182805e-05    4    2    9    4
 0.005590584801909666    4    2    9    5
 0.0006407780538024029    4    2    9    6
 -0.0001960228449490372    4    2    9    7
 -0.0002163697017011641    4    2    9    8
 -0.0006441785722840712    4    2    9    9
 0.003425770008259926    4    2   10    1
 -0.0002769188496828394    4    2   10    2
 -0.0004496528516129713    4    2   10    3
 -5.794727490965221e-05    4    2   10    4
 -1.536369207722778e-05    4    2   10    5
 -1.419257923344479e-05    4    2   10    6
 5.305544593596639e-05    4    2   10    7
 0.0001431571103909819    4    2   10    8
 -2.745519430836488e-05    4    2   10    9
 -0.003013716592881526    4    2   10   10
 -0.005448338920973211    4    3    1    1
 -0.2391725307178829    4    3    2    1
 0.00802461960684285    4    3    2    2
 0.0002813802747204763    4    3    3    1
 -0.001535277084130237    4    3    3    2
 -0.02033935456077311    4    3    3    3
 -0.003493571505537197    4    3    4    1
 0.0001683932726544071    4    3    4    2
 0.2368990216433398    4    3    4    3
 0.02250215834515132    4    3    4    4
 0.0009774751504892723    4    3    5    1
 -2.049284627028344e-05    4    3    5    2
 0.002331193990220019    4    3    5    3
 -0.0003377233740081769    4    3    5    4
 0.001778658647462936    4    3    5    5
 7.132311352161039e-05    4    3    6    1
 0.001298032015321349    4    3    6    2
 0.0005377546996810433    4    3    6    3
 -0.003640647630494468    4    3    6    4
 0.1898589562710367    4    3    6    5
 -0.0001142473056365192    4    3    6    6
 -0.007851104173157654    4    3    7    1
 0.000280042117047262    4    3    7    2
 0.01280969755922865    4    3    7    3
 0.001075212892475553    4    3    7    4
 0.0001454162293935647    4    3    7    5
 -0.0002541749397167435    4    3    7    6
 -0.003957562759017574    4    3    7    7
 -8.314747618487495e-05    4    3    8    1
 -2.547438418951803e-05    4    3    8    2
 -8.902849485594539e-05    4    3    8    3
 -0.0005154858861051823    4    3    8    4
 0.009550096772915802    4    3    8    5
 -0.0004461208408222221    4    3    8    6
 0.002226104934260741    4    3    8    7
 -0.03612864208443944    4    3    8    8
 -4.454075444103311e-06    4    3    9    1
 0.0003419119320685476    4    3    9    2
 -0.0004892955537768064    4    3    9    3
 -6.202135513387174e-05    4    3    9    4
 -0.0009213119812146557    4    3    9    5
 -0.005024450721151482    4    3    9    6
 0.0006489908748602332    4    3    9    7
 -0.2222087777356875    4    3    9    8
 0.03876706222544504    4    3    9    9
 -0.0002087241075812403    4    3   10    1
 -0.002472112998946846    4    3   10    2
 0.001702633477583385    4    3   10    3
 -0.03609591427338242    4    3   10    4
 -0.001623847228506099    4    3   10    5
 -0.0001285523649418004    4    3   10    6
 0.2103205293746256    4    3   10    7
 0.001348360347046981    4    3   10    8
 0.00310367084870735    4    3   10    9
 0.006342710814920521    4    3   10   10
 0.413844046070071    4    4    1    1
 -0.02178875298299247    4    4    2    1
 0.407643977178936    4    4    2    2
 -0.006596610680764358    4    4    3    1
 5.340697156042996e-05    4    4    3    2
 0.4161356692371952    4    4    3    3
 -0.0006515052281293298    4    4    4    1
 -0.001070830051599964    4    4    4    2
 0.02250215834515132    4    4    4    3
 0.3929310754979299    4    4    4    4
 0.0001319980530812628    4    4    5    1
 0.0003498200219730005    4    4    5    2
 0.0003032792390851766    4    4    5    3
 -0.001744574054650706    4    4    5    4
 0.384208240139172    4    4    5    5
 -0.0005727792299466336    4    4    6    1
 8.571533599665421e-05    4    4    6    2
 -0.000744627705997205    4    4    6    3
 -0.0002875133650920261    4    4    6    4
 0.01715351486045557    4    4    6    5
 0.3473789280347632    4    4    6    6
 -0.0007469871098816309    4    4    7    1
 0.00021718227914563    4    4    7    2
 0.002378556528280956    4    4    7    3
 -0.02369098968288784    4    4    7    4
 -0.001252903348597613    4    4    7    5
 -7.705657482493487e-05    4    4    7    6
 0.3944548260158291    4    4    7    7
 8.33311816284682e-05    4    4    8    1
 -0.0001362446453198468    4    4    8    2
 0.0005334222741497632    4    4    8    3
 -0.000139422557190981    4    4    8    4
 -0.0001255931450877337    4    4    8    5
 0.005328932819682684    4    4    8    6
 0.000415952055917837    4    4    8    7
 0.379812435761621    4    4    8    8
 -0.000110227904992044    4    4    9    1
 0.0001612477854758959    4    4    9    2
 -8.794225267581921e-05    4    4    9    3
 0.0005916058836813141    4    4    9    4
 -0.01211345166628868    4    4    9    5
 -0.0008673059254093521    4    4    9    6
 0.0004745444775476164    4    4    9    7
 -0.01854741144342609    4    4    9    8
 0.4063289062497811    4    4    9    9
 -0.003065267411782414    4    4   10    1
 -0.0001130005826029713    4    4   10    2
 -0.02296451183013315    4    4   10    3
 -0.004679900040070737    4    4   10    4
 -0.0001050495711402075    4    4   10    5
 -0.0005718177602329864    4    4   10    6
 0.0194603166251653    4    4   10    7
 -0.0006469579370333989    4    4   10    8
 0.0002341521399845149    4    4   10    9
 0.3736479982075834    4    4   10   10
 2.820578629031791e-05    5    1    1    1
 -0.001039844497182064    5    1    2    1
 8.900594579135308e-05    5    1    2    2
 4.0973141309135e-06    5    1    3    1
 -0.0001567316880441798    5    1    3    2
 -3.210485889050673e-05    5    1    3    3
 -4.659986618551018e-05    5    1    4    1
 1.55656240296585e-05    5    1    4    2
 0.0009774751504892792    5    1    4    3
 0.0001319980530812843    5    1    4    4
 0.0134328583630819    5    1    5    1
 -6.616405243670131e-05    5    1    5    2
 0.0005655866267157619    5    1    5    3
 5.894242452967338e-06    5    1    5    4
 5.161126713209663e-05    5    1    5    5
 -0.0003230296559837936    5    1    6    1
 -0.01144466615588663    5    1    6    2
 -2.786336999242471e-05    5    1    6    3
 0.0005671778232462213    5    1    6    4
 0.0008569761981182375    5    1    6    5
 4.873860359908846e-05    5    1    6    6
 -9.851233421123208e-05    5    1    7    1
 -1.986492493648577e-05    5    1    7    2
 0.0001012718209168813    5    1    7    3
 8.342450234368284e-07    5    1    7    4
 8.582858782632498e-06    5    1    7    5
 -0.001051260017978734    5    1    7    6
 -2.582472142324967e-05    5    1    7    7
 -0.0002011231645425414    5    1    8    1
 -0.001779148519778988    5    1    8    2
 0.000317044688859499    5    1    8    3
 -0.002514526018297045    5    1    8    4
 7.836987632048171e-05    5    1    8    5
 -2.994342772553982e-05    5    1    8    6
 0.006140044083332071    5    1    8    7
 -6.568095220294402e-05    5    1    8    8
 -0.001846730227762772    5    1    9    1
 0.0001550049614985359    5    1    9    2
 0.002050800888712372    5    1    9    3
 0.0002623780789293242    5    1    9    4
 -5.261918942419286e-06    5    1    9    5
 -9.73981456778784e-05    5    1    9    6
 -0.0003638936000274532    5    1    9    7
 -0.0009476334496603827    5    1    9    8
 0.0001996456818237722    5    1    9    9
 1.8263582317035e-05    5    1   10    1
 0.0001273224108399608    5    1   10    2
 -1.702824205138652e-05    5    1   10    3
 -9.925954812969564e-05    5    1   10    4
 -0.0006220957269035662    5    1   10    5
 -7.42402872021188e-06    5    1   10    6
 0.001003540751548677    5    1   10    7
 -0.0004913429456207903    5    1   10    8
 -0.006156555872373797    5    1   10    9
 7.906040918110007e-05    5    1   10   10
 0.0002989628144981478    5    2    1    1
 1.862238183912503e-05    5    2    2    1
 0.0004020638201735166    5    2    2    2
 -0.0001783414805198415    5    2    3    1
 1.678853599896033e-05    5    2    3    2
 0.0003826114528458978    5    2    3    3
 7.620763133115143e-06    5    2    4    1
 -6.777592808673437e-05    5    2    4    2
 -2.049284627029126e-05    5    2    4    3
 0.0003498200219730129    5    2    4    4
 -6.616405243670262e-05    5    2    5    1
 0.01267060622899004    5    2    5    2
 2.496197721505298e-05    5    2    5    3
 -0.0007063662548351295    5    2    5    4
 0.0003411496725515082    5    2    5    5
 -0.01127905596522063    5    2    6    1
 0.0003224243474820752    5    2    6    2
 -0.0005470102347057831    5    2    6    3
 -3.206899186782524e-05    5    2    6    4
 -1.542574752531911e-05    5    2    6    5
 0.0004088527473558642    5    2    6    6
 -1.60264263963537e-05    5    2    7    1
 -9.600424435463203e-05    5    2    7    2
 8.617028156526009e-06    5    2    7    3
 -3.662934223984351e-05    5    2    7    4
 0.0005246461827771967    5    2    7    5
 1.653211072176312e-05    5    2    7    6
 0.0002343354250393638    5    2    7    7
 -0.001402635700819529    5    2    8    1
 -9.407580801982315e-05    5    2    8    2
 0.001702031998865953    5    2    8    3
 -0.0001046745265881169    5    2    8    4
 6.384081120373675e-06    5    2    8    5
 -6.76288504833733e-05    5    2    8    6
 0.0004732254674969105    5    2    8    7
 0.0002805421683337223    5    2    8    8
 0.0001230983682083113    5    2    9    1
 -0.001631455015572991    5    2    9    2
 -4.789399332342287e-05    5    2    9    3
 -0.0025707217357249    5    2    9    4
 5.404683822427147e-05    5    2    9    5
 5.958908049382295e-06    5    2    9    6
 0.00613281241446593    5    2    9    7
 4.695374030591443e-05    5    2    9    8
 0.000434758675235731    5    2    9    9
 0.0001393676997450681    5    2   10    1
 1.333993096404502e-05    5    2   10    2
 -8.184436108399956e-05    5    2   10    3
 1.02555390661131e-05    5    2   10    4
 1.561842105566951e-05    5    2   10    5
 0.0005060167814861027    5    2   10    6
 4.478587771036927e-06    5    2   10    7
 -0.005489034345340214    5    2   10    8
 0.0006422761933056681    5    2   10    9
 0.0003539790400629778    5    2   10   10
 9.601915908651117e-05    5    3    1    1
 -0.002513071027760465    5    3    2    1
 0.0002279171919958793    5    3    2    2
 -1.65976420663914e-05    5    3    3    1
 -3.317105506409231e-05    5    3    3    2
 -6.346207679628153e-05    5    3    3    3
 0.0001114182516839265    5    3    4    1
 9.43971096285356e-06    5    3    4    2
 0.002331193990220005    5    3    4    3
 0.0003032792390851787    5    3    4    4
 0.0005655866267157673    5    3    5    1
 2.496197721505171e-05    5    3    5    2
 0.01094870179404915    5    3    5    3
 0.0001120063975640848    5    3    5    4
 0.0001600590473192558    5    3    5    5
 -3.52008885437177e-05    5    3    6    1
 -0.0007749230434480405    5    3    6    2
 -0.0007306618198627369    5    3    6    3
 0.008018204036392088    5    3    6    4
 0.00214287035791234    5    3    6    5
 0.0001530059822134272    5    3    6    6
 -7.548007365668888e-05    5    3    7    1
 -2.072084376412769e-05    5    3    7    2
 0.0001415917288828927    5    3    7    3
 -1.614937245399339e-05    5    3    7    4
 -0.0001473919938782578    5    3    7    5
 0.00374672125369365    5    3    7    6
 0.0001224136166578908    5    3    7    7
 0.000543567796945264    5    3    8    1
 0.00383459366176534    5    3    8    2
 0.0001462878618502571    5    3    8    3
 -0.0007626666003229344    5    3    8    4
 0.000142987516647248    5    3    8    5
 -2.70948518253124e-06    5    3    8    6
 0.001547710378431478    5    3    8    7
 -0.0002683831182137123    5    3    8    8
 0.004275588340677365    5    3    9    1
 -0.0002387385473920124    5    3    9    2
 0.0009573298380891704    5    3    9    3