 &FCI NORB=   6,NELEC= 6,MS2=0,
  ORBSYM=1,1,1,1,1,1,
  ISYM=1,
 &END
 -0.8910515244762111    1    1    1    1
 0.2917560876183926    2    1    1    1
 -0.188077152431337    2    1    2    1
 0.1440768627569149    2    2    1    1
 0.0248772915487159    2    2    2    1
 -0.2267525839785974    2    2    2    2
 0.02769777133139645    3    1    1    1
 -0.124763655117511    3    1    2    1
 0.07409423886144183    3    1    2    2
 0.5057433498031084    3    1    3    1
 -0.1214744134504879    3    2    1    1
 0.06256463658080688    3    2    2    1
 0.510587975776322    3    2    2    2
 0.1704902301395535    3    2    3    1
 0.3078113685418342    3    2    3    2
 0.1895354534905572    3    3    1    1
 0.1012441882544661    3    3    2    1
 0.5031370525814419    3    3    2    2
 0.2148854852686214    3    3    3    1
 -0.2063380541410758    3    3    3    2
 0.9693063867816067    3    3    3    3
 -0.3220380662668649    4    1    1    1
 0.02763563423294347    4    1    2    1
 0.04487088076269128    4    1    2    2
 0.3546755943522539    4    1    3    1
 -0.03233545882708579    4    1    3    2
 -0.21994144556604    4    1    3    3
 -0.2783502808008864    4    1    4    1
 -0.09782394294673287    4    2    1    1
 0.03946189623482008    4    2    2    1
 -0.02822454888976372    4    2    2    2
 0.1107974156682197    4    2    3    1
 0.5873774459340538    4    2    3    2
 0.2240659004465718    4    2    3    3
 0.05372702551861756    4    2    4    1
 0.1381376873813053    4    2    4    2
 0.09972457696467713    4    3    1    1
 0.02235439003930404    4    3    2    1
 0.3298552659677913    4    3    2    2
 -0.05030859770169208    4    3    3    1
 0.2452096368910777    4    3    3    2
 0.08254512897706655    4    3    3    3
 -0.06543162655303525    4    3    4    1
 0.2623359365326176    4    3    4    2
 -0.1550407929146876    4    3    4    3
 0.1792763733545209    4    4    1    1
 0.06173359227888408    4    4    2    1
 0.47474760638719    4    4    2    2
 -0.03731102998016898    4    4    3    1
 0.09515665319703652    4    4    3    2
 0.1531548119099287    4    4    3    3
 -0.06250525735855973    4    4    4    1
 0.01988045471622694    4    4    4    2
 0.287334562799341    4    4    4    3
 -0.03774147778122702    4    4    4    4
 0.5220041471760718    5    1    1    1
 0.483550479595214    5    1    2    1
 0.05802593400958377    5    1    2    2
 -0.09403662345835519    5    1    3    1
 -0.02470088281400168    5    1    3    2
 0.09080961450125637    5    1    3    3
 -0.1284949192575754    5    1    4    1
 -0.06065912013135429    5    1    4    2
 -0.06089093608482525    5    1    4    3
 0.02362685803424833    5    1    4    4
 0.5607623726984533    5    1    5    1
 0.1719941412394776    5    2    1    1
 0.04278942833190464    5    2    2    1
 0.5040624742033204    5    2    2    2
 0.05102806093888462    5    2    3    1
 0.355214659158607    5    2    3    2
 -0.2077609531468786    5    2    3    3
 0.03461959023195118    5    2    4    1
 0.2029233390914791    5    2    4    2
 0.03190691866945931    5    2    4    3
 0.3918374780028615    5    2    4    4
 -0.06904831794641479    5    2    5    1
 0.01573194438487395    5    2    5    2
 -0.2597447335566087    5    3    1    1
 0.01423537164221145    5    3    2    1
 0.0516123436551505    5    3    2    2
 0.1772283397173499    5    3    3    1
 -0.3596756540480985    5    3    3    2
 -0.05241935433090483    5    3    3    3
 -0.2056879880464675    5    3    4    1
 0.1810450234111918    5    3    4    2
 -0.2497563137951685    5    3    4    3
 -0.4464543284752927    5    3    4    4
 -0.1890551391852751    5    3    5    1
 -0.3318514544326989    5    3    5    2
 0.00454278645324437    5    3    5    3
 -0.1093009477806237    5    4    1    1
 0.02578049653731156    5    4    2    1
 0.2363155926128677    5    4    2    2
 -0.0207125779133301    5    4    3    1
 -0.03652347155663252    5    4    3    2
 -0.2001536818334857    5    4    3    3
 -0.1125445674702722    5    4    4    1
 0.3795716489357454    5    4    4    2
 -0.007241001324819137    5    4    4    3
 -0.2309207298078994    5    4    4    4
 -0.03704190850056559    5    4    5    1
 -0.01202081354628924    5    4    5    2
 -0.2600865928927036    5    4    5    3
 -0.2908766794607621    5    4    5    4
 0.324143339329009    5    5    1    1
 -0.2008745478850686    5    5    2    1
 0.1931087708765476    5    5    2    2
 0.005243061164924216    5    5    3    1
 -0.414943515899683    5    5    3    2
 0.2624589455685697    5    5    3    3
 -0.004447322251007038    5    5    4    1
 -0.2840947087855032    5    5    4    2
 -0.4050903342160803    5    5    4    3
 0.2783169377196636    5    5    4    4
 -0.1327973912767406    5    5    5    1
 -0.02711701798275625    5    5    5    2
 0.3498032104532697    5    5    5    3
 0.1009400597590524    5    5    5    4
 0.8325684897288684    5    5    5    5
 0.5148739767626386    6    1    1    1
 0.06520275005633755    6    1    2    1
 0.0121584563854653    6    1    2    2
 -0.2497280041075914    6    1    3    1
 0.06303378994875736    6    1    3    2
 0.4034410694374775    6    1    3    3
 -0.2828003624272807    6    1    4    1
 0.02932684501929434    6    1    4    2
 0.03706150323979517    6    1    4    3
 0.2421033980731581    6    1    4    4
 0.03460670735271639    6    1    5    1
 -0.00359879411092653    6    1    5    2
 0.2144556871119558    6    1    5    3
 0.2127777159988989    6    1    5    4
 0.1114676890927664    6    1    5    5
 -0.2929075809864739    6    1    6    1
 -0.04182644736884501    6    2    1    1
 -0.1547048336205288    6    2    2    1
 -0.2279894690470767    6    2    2    2
 0.06942796885083991    6    2    3    1
 -0.1139089427095066    6    2    3    2
 0.1639833254060529    6    2    3    3
 0.0746634665455449    6    2    4    1
 -0.1785525943532515    6    2    4    2
 -0.06513828702954738    6    2    4    3
 0.002579043935223486    6    2    4    4
 -0.2084675699734938    6    2    5    1
 -0.08188100712179619    6    2    5    2
 0.3959147632254658    6    2    5    3
 0.06808913098228625    6    2    5    4
 0.0471302167052486    6    2    5    5
 -0.1369603254169957    6    2    6    1
 -0.3291013609633588    6    2    6    2
 -0.1816700266613298    6    3    1    1
 0.06792352836985442    6    3    2    1
 -0.01786352904438224    6    3    2    2
 -0.110621675706504    6    3    3    1
 0.3103260314438981    6    3    3    2
 0.3621137715997536    6    3    3    3
 -0.05226582039498259    6    3    4    1
 0.02511583578133073    6    3    4    2
 0.1259040162658125    6    3    4    3
 -0.002830547066723478    6    3    4    4
 0.1230750232803702    6    3    5    1
 0.2572235773956303    6    3    5    2
 0.2591260360831446    6    3    5    3
 0.07995964266833391    6    3    5    4
 -0.07474955245956989    6    3    5    5
 0.06986700900862505    6    3    6    1
 -0.1334396746365813    6    3    6    2
 -0.02448656681654284    6    3    6    3
 0.09102468595477761    6    4    1    1
 0.05606644642258996    6    4    2    1
 -0.09052152700473461    6    4    2    2
 -0.2068625949954084    6    4    3    1
 -0.1427002595441047    6    4    3    2
 -0.06473972523434193    6    4    3    3
 0.03861282178935379    6    4    4    1
 -0.06984425412042104    6    4    4    2
 -0.1454808300606679    6    4    4    3
 -0.1759889023330503    6    4    4    4
 0.1984788839755388    6    4    5    1
 0.04720836461555131    6    4    5    2
 -0.2159614140648548    6    4    5    3
 -0.1923833308372744    6    4    5    4
 0.01925551243882791    6    4    5    5
 0.04743139448099807    6    4    6    1
 0.1332341549451334    6    4    6    2
 0.1395327957621114    6    4    6    3
 -0.1335319977370105    6    4    6    4
 -0.02339679681086456    6    5    1    1
 -0.2189598790029864    6    5    2    1
 0.05433281751469732    6    5    2    2
 0.07910540266140637    6    5    3    1
 0.3542472671787147    6    5    3    2
 0.0247601799877667    6    5    3    3
 0.282167911983455    6    5    4    1
 -0.1268337803000829    6    5    4    2
 -0.02013512254909533    6    5    4    3
 0.1460330747512935    6    5    4    4
 -0.3062688570693758    6    5    5    1
 0.1483145078671641    6    5    5    2
 -0.1883007812458005    6    5    5    3
 -0.05448703969594609    6    5    5    4
 -0.1329588795694925    6    5    5    5
 -0.1316364626444823    6    5    6    1
 0.1523312578059818    6    5    6    2
 0.05932211567633178    6    5    6    3
 0.1720907164066309    6    5    6    4
 0.4897954846154334    6    5    6    5
 -0.2561468461547262    6    6    1    1
 -0.1991247022692935    6    6    2    1
 0.1271553596253836    6    6    2    2
 0.2212153284247701    6    6    3    1
 -0.1377202000173545    6    6    3    2
 0.2541852051484355    6    6    3    3
 0.2459421666019851    6    6    4    1
 -0.05168247627209607    6    6    4    2
 -0.08103404195978538    6    6    4    3
 0.4096970034113045    6    6    4    4
 -0.12048145480018    6    6    5    1
 0.1031961136318798    6    6    5    2
 -0.001296873464968433    6    6    5    3
 0.03534718434120221    6    6    5    4
 0.6561130398686308    6    6    5    5
 0.1533783575138742    6    6    6    1
 0.1395621739952546    6    6    6    2
 -0.4060791949235979    6    6    6    3
 -0.478551954600809    6    6    6    4
 0.1073022086941135    6    6    6    5
 0.09228137217909246    6    6    6    6
 0.1492767175750756    1    1  0  0
 0.2834478350993053    2    1  0  0
 0.840331587160611    2    2  0  0
 0.008874125928681045    3    1  0  0
 -0.4406457410754869    3    2  0  0
 0.3480296703685577    3    3  0  0
 -0.3376024641095673    4    1  0  0
 0.4388068791815249    4    2  0  0
 0.2514308918028277    4    3  0  0
 -0.1655481651892533    4    4  0  0
 0.1359836767440269    5    1  0  0
 0.2348465184114499    5    2  0  0
 -0.6057105318297609    5    3  0  0
 -0.6987376733236429    5    4  0  0
 1.134266010181243    5    5  0  0
 0.1803715682345612    6    1  0  0
 0.5911775363735816    6    2  0  0
 0.0103587964659472    6    3  0  0
 -0.5278256194887642    6    4  0  0
 0.2573447757991627    6    5  0  0
 0.3124608965102718    6    6  0  0
 0  0  0  0  0
