 &FCI NORB=   5,NELEC= 4,MS2=0,
  ORBSYM=1,1,1,1,1,
  ISYM=1,
 &END
 0.3920155101456625    1    1    1    1
 0.02498186516369061    2    1    1    1
 -0.6185591778632732    2    1    2    1
 -0.02322180469093563    2    2    1    1
 -0.1582210844831403    2    2    2    1
 -1.439405720054122    2    2    2    2
 -0.05275487908128637    3    1    1    1
 0.1758766052957602    3    1    2    1
 0.1738917817308739    3    1    2    2
 0.1031862977530667    3    1    3    1
 -0.06427762411712161    3    2    1    1
 -0.1389257751277074    3    2    2    1
 -0.001354230782755498    3    2    2    2
 0.07179880726236135    3    2    3    1
 -0.1484126218872914    3    2    3    2
 -0.01166229081245131    3    3    1    1
 0.1830919171952619    3    3    2    1
 0.1881745829182068    3    3    2    2
 -0.1257627003594591    3    3    3    1
 0.2956163985131052    3    3    3    2
 -0.3830292789051236    3    3    3    3
 -0.4142791647767309    4    1    1    1
 0.4583087643415492    4    1    2    1
 -0.5228339564742364    4    1    2    2
 -0.3365342639879754    4    1    3    1
 0.1727928449601021    4    1    3    2
 -0.0965900164970781    4    1    3    3
 -0.1453513510806211    4    1    4    1
 -0.4414539712751869    4    2    1    1
 0.137001043948142    4    2    2    1
 0.02706757644778477    4    2    2    2
 -0.02200940064371302    4    2    3    1
 0.06131424641006328    4    2    3    2
 0.2030883820940598    4    2    3    3
 -0.01481617797300501    4    2    4    1
 -0.4804759228563799    4    2    4    2
 0.06871360008196159    4    3    1    1
 0.1329575529088893    4    3    2    1
 0.1202153455236949    4    3    2    2
 -0.006816068054231899    4    3    3    1
 0.3290236384777627    4    3    3    2
 -0.3707177350078004    4    3    3    3
 -0.1053477702968264    4    3    4    1
 0.1471275370837106    4    3    4    2
 -0.1556660949406305    4    3    4    3
 0.2021925773170121    4    4    1    1
 -0.6477778619510897    4    4    2    1
 0.4179625799975759    4    4    2    2
 0.3411843579557519    4    4    3    1
 -0.3114869549027958    4    4    3    2
 0.1062494524923633    4    4    3    3
 -0.300968942571121    4    4    4    1
 0.4670691958235702    4    4    4    2
 -0.4347228256528129    4    4    4    3
 -0.777261487621007    4    4    4    4
 -0.1662202556256319    5    1    1    1
 -0.3208266482386479    5    1    2    1
 0.01283629473600359    5    1    2    2
 0.2396488314066468    5    1    3    1
 -0.1253086530736661    5    1    3    2
 -0.04425177137788126    5    1    3    3
 0.268316728907887    5    1    4    1
 0.3134960109227382    5    1    4    2
 -0.2223376384403035    5    1    4    3
 0.02970225678016204    5    1    4    4
 0.250396557579048    5    1    5    1
 0.3536415705810743    5    2    1    1
 0.09527484371112553    5    2    2    1
 -0.3028873443773831    5    2    2    2
 0.02640397365288227    5    2    3    1
 -0.02418296994764096    5    2    3    2
 -0.09281696410655234    5    2    3    3
 -0.05150897334435866    5    2    4    1
 0.02200912286560732    5    2    4    2
 0.04533034916228199    5    2    4    3
 0.4902794070368768    5    2    4    4
 -0.04433072314938279    5    2    5    1
 -0.289610413857912    5    2    5    2
 -0.01906120290582245    5    3    1    1
 0.2392573384446645    5    3    2    1
 0.1402228466721847    5    3    2    2
 0.07992980878758775    5    3    3    1
 -0.2340739691695414    5    3    3    2
 -0.1998797515943716    5    3    3    3
 0.3742802030905529    5    3    4    1
 0.36310556770407    5    3    4    2
 0.04868030552793558    5    3    4    3
 0.06092362454062501    5    3    4    4
 -0.2040270076589343    5    3    5    1
 -0.0519534155275951    5    3    5    2
 -0.1467832477780384    5    3    5    3
 0.3109291684485138    5    4    1    1
 0.2169474069363466    5    4    2    1
 -0.01248151289258156    5    4    2    2
 -0.1150403319665668    5    4    3    1
 0.08703294903903756    5    4    3    2
 -0.2889670467498655    5    4    3    3
 0.08666888578174772    5    4    4    1
 -0.1311274689104952    5    4    4    2
 0.1697380285210608    5    4    4    3
 0.1854700274890251    5    4    4    4
 -0.06670219423719573    5    4    5    1
 0.1529892565850512    5    4    5    2
 -0.2930811337489612    5    4    5    3
 -0.01998355180536446    5    4    5    4
 0.07845075516691381    5    5    1    1
 0.1597248734402141    5    5    2    1
 -0.09415100305797421    5    5    2    2
 0.02168165348586434    5    5    3    1
 -0.06301811269430313    5    5    3    2
 -0.6689260483081516    5    5    3    3
 0.04943552279200317    5    5    4    1
 0.02278874087904168    5    5    4    2
 0.07585713589959064    5    5    4    3
 0.05233458882372775    5    5    4    4
 -0.1330517095170968    5    5    5    1
 -0.4969953654338198    5    5    5    2
 -0.1726592787806619    5    5    5    3
 0.05395161562994701    5    5    5    4
 -0.1585895595231288    5    5    5    5
 -0.3433062478165601    1    1  0  0
 0.1826883614315733    2    1  0  0
 -0.6147290586487268    2    2  0  0
 -0.355492609500114    3    1  0  0
 -0.03366547005548581    3    2  0  0
 -0.1222079698272075    3    3  0  0
 0.2146597946931383    4    1  0  0
 0.3451601364036278    4    2  0  0
 -0.3179934966634234    4    3  0  0
 -0.5612914357160238    4    4  0  0
 -0.1905127053935272    5    1  0  0
 -0.5548931420318275    5    2  0  0
 0.3610266492650014    5    3  0  0
 -0.1464746279228209    5    4  0  0
 0.2425801083072522    5    5  0  0
 0  0  0  0  0
